
          ---- Changes of mineral abundance (or/and exchanged species concentrations) vs. grid blocks at specified times ----

 
   Unit: 
    - SMco2: Total CO2 sequstered in mineral phases in  kg/m**3 medium
    - Permeability in  m**2
    - Minerals: Changes of abundance in volume fraction      
 
VARIABLES =X,       Y,        Z,      T,   SMco2 , Porosity,   Permeabi., anhydrite  ,halite     ,calcite    ,magnesite  ,quartz     ,dolomite-2 ,kaolinite  ,siderite-2 ,ankerite-2 ,pyrite-2   ,dawsonite  ,illite     ,oligoclase ,smectite-na,k-feldspar ,chlorite   ,hematite   ,smectite-ca,albite~low ,
ZONE T= "0.000000E+00 yr"  F=POINT
      0.017      0.017    -0.062 120.000   0.00000   0.97000  0.10000E-16  0.0000E+00  0.0000E+00  0.0000E+00  0.0000E+00  0.0000E+00  0.0000E+00  0.0000E+00  0.0000E+00  0.0000E+00  0.0000E+00  0.0000E+00  0.0000E+00  0.0000E+00  0.0000E+00  0.0000E+00  0.0000E+00  0.0000E+00  0.0000E+00  0.0000E+00
      0.017      0.017    -0.013 120.000   0.00000   1.00000  0.10000E-16  0.0000E+00  0.0000E+00  0.0000E+00  0.0000E+00  0.0000E+00  0.0000E+00  0.0000E+00  0.0000E+00  0.0000E+00  0.0000E+00  0.0000E+00  0.0000E+00  0.0000E+00  0.0000E+00  0.0000E+00  0.0000E+00  0.0000E+00  0.0000E+00  0.0000E+00
ZONE T= "0.342239E-04 yr"  F=POINT
      0.017      0.017    -0.062 120.000  -0.00032   0.97012  0.10004E-16  0.4144E-06 -0.1228E-03 -0.1468E-07  0.0000E+00  0.0000E+00 -0.2277E-06  0.0000E+00  0.0000E+00  0.0000E+00  0.0000E+00  0.0000E+00  0.0000E+00  0.0000E+00  0.0000E+00  0.0000E+00  0.0000E+00  0.2402E-16  0.0000E+00  0.0000E+00
      0.017      0.017    -0.013 120.000   0.00000   0.99996  0.99989E-17  0.3673E-04  0.0000E+00  0.7699E-12  0.7828E-15  0.0000E+00  0.2970E-12  0.0000E+00  0.0000E+00  0.0000E+00  0.0000E+00  0.0000E+00  0.0000E+00  0.0000E+00  0.0000E+00  0.0000E+00  0.0000E+00  0.1446E-11  0.0000E+00  0.0000E+00
ZONE T= "0.570398E-04 yr"  F=POINT
      0.017      0.017    -0.062 120.000  -0.00054   0.97020  0.10006E-16  0.0000E+00 -0.2007E-03 -0.2404E-07  0.0000E+00  0.0000E+00 -0.3766E-06  0.0000E+00  0.0000E+00  0.0000E+00  0.0000E+00  0.0000E+00  0.0000E+00  0.0000E+00  0.0000E+00  0.0000E+00  0.0000E+00  0.4393E-16  0.0000E+00  0.0000E+00
      0.017      0.017    -0.013 120.000   0.00000   0.99996  0.99989E-17  0.3673E-04  0.0000E+00  0.1283E-11  0.1305E-14  0.0000E+00  0.4950E-12  0.0000E+00  0.0000E+00  0.0000E+00  0.0000E+00  0.0000E+00  0.0000E+00  0.0000E+00  0.0000E+00  0.0000E+00  0.0000E+00  0.1446E-11  0.0000E+00  0.0000E+00
ZONE T= "0.684478E-04 yr"  F=POINT
      0.017      0.017    -0.062 120.000  -0.00064   0.97024  0.10007E-16  0.0000E+00 -0.2378E-03 -0.2865E-07  0.0000E+00  0.0000E+00 -0.4506E-06  0.0000E+00  0.0000E+00  0.0000E+00  0.0000E+00  0.0000E+00  0.0000E+00  0.0000E+00  0.0000E+00  0.0000E+00  0.0000E+00  0.5459E-16  0.0000E+00  0.0000E+00
      0.017      0.017    -0.013 120.000   0.00000   0.99996  0.99989E-17  0.3673E-04  0.0000E+00  0.1540E-11  0.1566E-14  0.0000E+00  0.5939E-12  0.0000E+00  0.0000E+00  0.0000E+00  0.0000E+00  0.0000E+00  0.0000E+00  0.0000E+00  0.0000E+00  0.0000E+00  0.0000E+00  0.1446E-11  0.0000E+00  0.0000E+00
ZONE T= "0.114080E-03 yr"  F=POINT
      0.017      0.017    -0.062 120.000  -0.00105   0.97038  0.10012E-16  0.0000E+00 -0.3788E-03 -0.4639E-07  0.0000E+00  0.0000E+00 -0.7416E-06  0.0000E+00  0.0000E+00  0.0000E+00  0.0000E+00  0.0000E+00  0.0000E+00  0.0000E+00  0.0000E+00  0.0000E+00  0.0000E+00  0.1063E-15  0.0000E+00  0.0000E+00
      0.017      0.017    -0.013 120.000   0.00000   0.99996  0.99989E-17  0.3672E-04  0.0000E+00  0.2566E-11  0.2609E-14  0.0000E+00  0.9897E-12  0.0000E+00  0.0000E+00  0.0000E+00  0.0000E+00  0.0000E+00  0.0000E+00  0.0000E+00  0.0000E+00  0.0000E+00  0.0000E+00  0.1446E-11  0.0000E+00  0.0000E+00
ZONE T= "0.171119E-03 yr"  F=POINT
      0.017      0.017    -0.062 120.000  -0.00156   0.97054  0.10017E-16  0.0000E+00 -0.5390E-03 -0.6723E-07  0.0000E+00  0.0000E+00 -0.1096E-05  0.0000E+00  0.0000E+00  0.0000E+00  0.0000E+00  0.0000E+00  0.0000E+00  0.0000E+00  0.0000E+00  0.0000E+00  0.0000E+00  0.1935E-15  0.0000E+00  0.0000E+00
      0.017      0.017    -0.013 120.000   0.00000   0.99996  0.99989E-17  0.3672E-04  0.0000E+00  0.3848E-11  0.3913E-14  0.0000E+00  0.1484E-11  0.0000E+00  0.0000E+00  0.0000E+00  0.0000E+00  0.0000E+00  0.0000E+00  0.0000E+00  0.0000E+00  0.0000E+00  0.0000E+00  0.1446E-11  0.0000E+00  0.0000E+00
ZONE T= "0.285199E-03 yr"  F=POINT
      0.017      0.017    -0.062 120.000  -0.00252   0.97081  0.10025E-16  0.0000E+00 -0.8049E-03 -0.1058E-06  0.0000E+00  0.0000E+00 -0.1780E-05  0.0000E+00  0.0000E+00  0.0000E+00  0.0000E+00  0.0000E+00  0.0000E+00  0.0000E+00  0.0000E+00  0.0000E+00  0.0000E+00  0.4505E-15  0.0000E+00  0.0000E+00
      0.017      0.017    -0.013 120.000   0.00000   0.99996  0.99989E-17  0.3671E-04  0.0000E+00  0.6413E-11  0.6521E-14  0.0000E+00  0.2473E-11  0.0000E+00  0.0000E+00  0.0000E+00  0.0000E+00  0.0000E+00  0.0000E+00  0.0000E+00  0.0000E+00  0.0000E+00  0.0000E+00  0.1446E-11  0.0000E+00  0.0000E+00
ZONE T= "0.342239E-03 yr"  F=POINT
      0.017      0.017    -0.062 120.000  -0.00299   0.97092  0.10028E-16  0.0000E+00 -0.9166E-03 -0.1236E-06  0.0000E+00  0.0000E+00 -0.2112E-05  0.0000E+00  0.0000E+00  0.0000E+00  0.0000E+00  0.0000E+00  0.0000E+00  0.0000E+00  0.0000E+00  0.0000E+00  0.0000E+00  0.6323E-15  0.0000E+00  0.0000E+00
      0.017      0.017    -0.013 120.000   0.00000   0.99996  0.99989E-17  0.3671E-04  0.0000E+00  0.7695E-11  0.7824E-14  0.0000E+00  0.2967E-11  0.0000E+00  0.0000E+00  0.0000E+00  0.0000E+00  0.0000E+00  0.0000E+00  0.0000E+00  0.0000E+00  0.0000E+00  0.0000E+00  0.1446E-11  0.0000E+00  0.0000E+00
ZONE T= "0.570398E-03 yr"  F=POINT
      0.017      0.017    -0.062 120.000  -0.00477   0.97127  0.10039E-16  0.0000E+00 -0.1263E-02 -0.1875E-06  0.0000E+00  0.0000E+00 -0.3377E-05  0.0000E+00  0.0000E+00  0.0000E+00  0.0000E+00  0.0000E+00  0.0000E+00  0.0000E+00  0.0000E+00  0.0000E+00  0.0000E+00  0.1867E-14  0.0000E+00  0.0000E+00
      0.017      0.017    -0.013 120.000   0.00000   0.99996  0.99989E-17  0.3669E-04  0.0000E+00  0.1282E-10  0.1304E-13  0.0000E+00  0.4942E-11  0.0000E+00  0.0000E+00  0.0000E+00  0.0000E+00  0.0000E+00  0.0000E+00  0.0000E+00  0.0000E+00  0.0000E+00  0.0000E+00  0.1446E-11  0.0000E+00  0.0000E+00
ZONE T= "0.684478E-03 yr"  F=POINT
      0.017      0.017    -0.062 120.000  -0.00563   0.97138  0.10043E-16  0.0000E+00 -0.1377E-02 -0.2165E-06  0.0000E+00  0.0000E+00 -0.3986E-05  0.0000E+00  0.0000E+00  0.0000E+00  0.0000E+00  0.0000E+00  0.0000E+00  0.0000E+00  0.0000E+00  0.0000E+00  0.0000E+00  0.2812E-14  0.0000E+00  0.0000E+00
      0.017      0.017    -0.013 120.000   0.00000   0.99996  0.99989E-17  0.3669E-04  0.0000E+00  0.1538E-10  0.1564E-13  0.0000E+00  0.5928E-11  0.0000E+00  0.0000E+00  0.0000E+00  0.0000E+00  0.0000E+00  0.0000E+00  0.0000E+00  0.0000E+00  0.0000E+00  0.0000E+00  0.1446E-11  0.0000E+00  0.0000E+00
ZONE T= "0.114080E-02 yr"  F=POINT
      0.017      0.017    -0.062 120.000  -0.00885   0.97165  0.10051E-16  0.0000E+00 -0.1646E-02 -0.3156E-06  0.0000E+00  0.0000E+00 -0.6286E-05  0.0000E+00  0.0000E+00  0.0000E+00  0.0000E+00  0.0000E+00  0.0000E+00  0.0000E+00  0.0000E+00  0.0000E+00  0.0000E+00  0.9953E-14  0.0000E+00  0.0000E+00
      0.017      0.017    -0.013 120.000   0.00000   0.99996  0.99989E-17  0.3666E-04  0.0000E+00  0.2562E-10  0.2605E-13  0.0000E+00  0.9865E-11  0.0000E+00  0.0000E+00  0.0000E+00  0.0000E+00  0.0000E+00  0.0000E+00  0.0000E+00  0.0000E+00  0.0000E+00  0.0000E+00  0.1446E-11  0.0000E+00  0.0000E+00
ZONE T= "0.171119E-02 yr"  F=POINT
      0.017      0.017    -0.062 120.000  -0.01257   0.97176  0.10054E-16  0.0000E+00 -0.1748E-02 -0.4133E-06  0.0000E+00  0.0000E+00 -0.8966E-05  0.0000E+00  0.0000E+00  0.0000E+00  0.0000E+00  0.0000E+00  0.0000E+00  0.0000E+00  0.0000E+00  0.0000E+00  0.0000E+00  0.2537E-13  0.0000E+00  0.0000E+00
      0.017      0.017    -0.013 120.000   0.00000   0.99996  0.99989E-17  0.3663E-04  0.0000E+00  0.3839E-10  0.3903E-13  0.0000E+00  0.1477E-10  0.0000E+00  0.0000E+00  0.0000E+00  0.0000E+00  0.0000E+00  0.0000E+00  0.0000E+00  0.0000E+00  0.0000E+00  0.0000E+00  0.1446E-11  0.0000E+00  0.0000E+00
ZONE T= "0.285199E-02 yr"  F=POINT
      0.017      0.017    -0.062 120.000  -0.01949   0.97177  0.10055E-16  0.0000E+00 -0.1755E-02 -0.5501E-06  0.0000E+00  0.0000E+00 -0.1398E-04  0.0000E+00  0.0000E+00  0.0000E+00  0.0000E+00  0.0000E+00  0.0000E+00  0.0000E+00  0.0000E+00  0.0000E+00  0.0000E+00  0.5364E-13  0.0000E+00  0.0000E+00
      0.017      0.017    -0.013 120.000   0.00000   0.99996  0.99989E-17  0.3657E-04  0.0000E+00  0.6387E-10  0.6494E-13  0.0000E+00  0.2453E-10  0.0000E+00  0.0000E+00  0.0000E+00  0.0000E+00  0.0000E+00  0.0000E+00  0.0000E+00  0.0000E+00  0.0000E+00  0.0000E+00  0.1446E-11  0.0000E+00  0.0000E+00
ZONE T= "0.342239E-02 yr"  F=POINT
      0.017      0.017    -0.062 120.000  -0.02273   0.97177  0.10055E-16  0.0000E+00 -0.1755E-02 -0.5901E-06  0.0000E+00  0.0000E+00 -0.1635E-04  0.0000E+00  0.0000E+00  0.0000E+00  0.0000E+00  0.0000E+00  0.0000E+00  0.0000E+00  0.0000E+00  0.0000E+00  0.0000E+00  0.6114E-13  0.0000E+00  0.0000E+00
      0.017      0.017    -0.013 120.000   0.00000   0.99996  0.99989E-17  0.3653E-04  0.0000E+00  0.7658E-10  0.7785E-13  0.0000E+00  0.2939E-10  0.0000E+00  0.0000E+00  0.0000E+00  0.0000E+00  0.0000E+00  0.0000E+00  0.0000E+00  0.0000E+00  0.0000E+00  0.0000E+00  0.1446E-11  0.0000E+00  0.0000E+00
ZONE T= "0.547582E-02 yr"  F=POINT
      0.017      0.017    -0.062 120.000  -0.03344   0.97178  0.10055E-16  0.0000E+00 -0.1755E-02 -0.5813E-06  0.0000E+00  0.0000E+00 -0.2429E-04  0.0000E+00  0.0000E+00  0.0000E+00  0.0000E+00  0.0000E+00  0.0000E+00  0.0000E+00  0.0000E+00  0.0000E+00  0.0000E+00  0.7034E-13  0.0000E+00  0.0000E+00
      0.017      0.017    -0.013 120.000   0.00000   0.99996  0.99989E-17  0.3642E-04  0.0000E+00  0.1225E-09  0.1241E-12  0.0000E+00  0.4672E-10  0.0000E+00  0.0000E+00  0.0000E+00  0.0000E+00  0.0000E+00  0.0000E+00  0.0000E+00  0.0000E+00  0.0000E+00  0.0000E+00  0.1446E-11  0.0000E+00  0.0000E+00
ZONE T= "0.570398E-02 yr"  F=POINT
      0.017      0.017    -0.062 120.000  -0.03458   0.97178  0.10055E-16  0.0000E+00 -0.1755E-02 -0.5733E-06  0.0000E+00  0.0000E+00 -0.2514E-04  0.0000E+00  0.0000E+00  0.0000E+00  0.0000E+00  0.0000E+00  0.0000E+00  0.0000E+00  0.0000E+00  0.0000E+00  0.0000E+00  0.7082E-13  0.0000E+00  0.0000E+00
      0.017      0.017    -0.013 120.000   0.00000   0.99996  0.99989E-17  0.3640E-04  0.0000E+00  0.1287E-09  0.1293E-12  0.0000E+00  0.4863E-10  0.0000E+00  0.0000E+00  0.0000E+00  0.0000E+00  0.0000E+00  0.0000E+00  0.0000E+00  0.0000E+00  0.0000E+00  0.0000E+00  0.1446E-11  0.0000E+00  0.0000E+00
ZONE T= "0.821373E-02 yr"  F=POINT
      0.017      0.017    -0.062 120.000  -0.04593   0.97179  0.10055E-16  0.0000E+00 -0.1755E-02 -0.3038E-06  0.0000E+00  0.0000E+00 -0.3379E-04  0.0000E+00  0.0000E+00  0.0000E+00  0.0000E+00  0.0000E+00  0.0000E+00  0.0000E+00  0.0000E+00  0.0000E+00  0.0000E+00  0.7249E-13  0.0000E+00  0.0000E+00
      0.017      0.017    -0.013 120.000   0.00000   0.99996  0.99989E-17  0.3626E-04  0.0000E+00  0.2129E-09  0.1854E-12  0.0000E+00  0.6952E-10  0.0000E+00  0.0000E+00  0.0000E+00  0.0000E+00  0.0000E+00  0.0000E+00  0.0000E+00  0.0000E+00  0.0000E+00  0.0000E+00  0.1446E-11  0.0000E+00  0.0000E+00
ZONE T= "0.912637E-02 yr"  F=POINT
      0.017      0.017    -0.062 120.000  -0.04960   0.97179  0.10056E-16  0.0000E+00 -0.1755E-02 -0.1386E-06  0.3360E-14  0.0000E+00 -0.3665E-04  0.0000E+00  0.0000E+00  0.0000E+00  0.0000E+00  0.0000E+00  0.0000E+00  0.0000E+00  0.0000E+00  0.0000E+00  0.0000E+00  0.7267E-13  0.0000E+00  0.0000E+00
      0.017      0.017    -0.013 120.000   0.00000   0.99996  0.99989E-17  0.3621E-04  0.0000E+00  0.2555E-09  0.2058E-12  0.0000E+00  0.7704E-10  0.0000E+00  0.0000E+00  0.0000E+00  0.0000E+00  0.0000E+00  0.0000E+00  0.0000E+00  0.0000E+00  0.0000E+00  0.0000E+00  0.1446E-11  0.0000E+00  0.0000E+00
ZONE T= "0.123206E-01 yr"  F=POINT
      0.017      0.017    -0.062 120.000  -0.06003   0.97180  0.10056E-16  0.0000E+00 -0.1755E-02  0.7499E-06  0.5131E-13  0.0000E+00 -0.4516E-04  0.0000E+00  0.0000E+00  0.0000E+00  0.0000E+00  0.0000E+00  0.0000E+00  0.0000E+00  0.0000E+00  0.0000E+00  0.0000E+00  0.7290E-13  0.0000E+00  0.0000E+00
      0.017      0.017    -0.013 120.000   0.00000   0.99996  0.99989E-17  0.3603E-04  0.0000E+00  0.4634E-09  0.2764E-12  0.0000E+00  0.1030E-09  0.0000E+00  0.0000E+00  0.0000E+00  0.0000E+00  0.0000E+00  0.0000E+00  0.0000E+00  0.0000E+00  0.0000E+00  0.0000E+00  0.1446E-11  0.0000E+00  0.0000E+00
ZONE T= "0.136896E-01 yr"  F=POINT
      0.017      0.017    -0.062 120.000  -0.06357   0.97180  0.10056E-16  0.0000E+00 -0.1755E-02  0.1238E-05  0.8474E-13  0.0000E+00 -0.4820E-04  0.0000E+00  0.0000E+00  0.0000E+00  0.0000E+00  0.0000E+00  0.0000E+00  0.0000E+00  0.0000E+00  0.0000E+00  0.0000E+00  0.7294E-13  0.0000E+00  0.0000E+00
      0.017      0.017    -0.013 120.000   0.00000   0.99996  0.99989E-17  0.3595E-04  0.0000E+00  0.6008E-09  0.3065E-12  0.0000E+00  0.1143E-09  0.0000E+00  0.0000E+00  0.0000E+00  0.0000E+00  0.0000E+00  0.0000E+00  0.0000E+00  0.0000E+00  0.0000E+00  0.0000E+00  0.1446E-11  0.0000E+00  0.0000E+00
ZONE T= "0.164275E-01 yr"  F=POINT
      0.017      0.017    -0.062 120.000  -0.06870   0.97181  0.10056E-16  0.0000E+00 -0.1755E-02  0.2412E-05  0.1766E-12  0.0000E+00 -0.5303E-04  0.0000E+00  0.0000E+00  0.0000E+00  0.0000E+00  0.0000E+00  0.0000E+00  0.0000E+00  0.0000E+00  0.0000E+00  0.0000E+00  0.7297E-13  0.0000E+00  0.0000E+00
      0.017      0.017    -0.013 120.000   0.00000   0.99996  0.99989E-17  0.3579E-04  0.0000E+00  0.9540E-09  0.3662E-12  0.0000E+00  0.1391E-09  0.0000E+00  0.0000E+00  0.0000E+00  0.0000E+00  0.0000E+00  0.0000E+00  0.0000E+00  0.0000E+00  0.0000E+00  0.0000E+00  0.1446E-11  0.0000E+00  0.0000E+00
ZONE T= "0.205343E-01 yr"  F=POINT
      0.017      0.017    -0.062 120.000  -0.07337   0.97181  0.10056E-16  0.0000E+00 -0.1755E-02  0.4453E-05  0.3518E-12  0.0000E+00 -0.5827E-04  0.0000E+00  0.0000E+00  0.0000E+00  0.0000E+00  0.0000E+00  0.0000E+00  0.0000E+00  0.0000E+00  0.0000E+00  0.0000E+00  0.7298E-13  0.0000E+00  0.0000E+00
      0.017      0.017    -0.013 120.000   0.00000   0.99996  0.99989E-17  0.3556E-04  0.0000E+00  0.1786E-08  0.4546E-12  0.0000E+00  0.1832E-09  0.0000E+00  0.0000E+00  0.0000E+00  0.0000E+00  0.0000E+00  0.0000E+00  0.0000E+00  0.0000E+00  0.0000E+00  0.0000E+00  0.1446E-11  0.0000E+00  0.0000E+00
ZONE T= "0.205343E-01 yr"  F=POINT
      0.017      0.017    -0.062 120.000  -0.07337   0.97181  0.10056E-16  0.0000E+00 -0.1755E-02  0.4453E-05  0.3518E-12  0.0000E+00 -0.5827E-04  0.0000E+00  0.0000E+00  0.0000E+00  0.0000E+00  0.0000E+00  0.0000E+00  0.0000E+00  0.0000E+00  0.0000E+00  0.0000E+00  0.7298E-13  0.0000E+00  0.0000E+00
      0.017      0.017    -0.013 120.000   0.00000   0.99996  0.99989E-17  0.3556E-04  0.0000E+00  0.1786E-08  0.4546E-12  0.0000E+00  0.1832E-09  0.0000E+00  0.0000E+00  0.0000E+00  0.0000E+00  0.0000E+00  0.0000E+00  0.0000E+00  0.0000E+00  0.0000E+00  0.0000E+00  0.1446E-11  0.0000E+00  0.0000E+00
ZONE T= "0.246412E-01 yr"  F=POINT
      0.017      0.017    -0.062 120.000  -0.07653   0.97181  0.10056E-16  0.0000E+00 -0.1755E-02  0.6631E-05  0.5453E-12  0.0000E+00 -0.6250E-04  0.0000E+00  0.0000E+00  0.0000E+00  0.0000E+00  0.0000E+00  0.0000E+00  0.0000E+00  0.0000E+00  0.0000E+00  0.0000E+00  0.7299E-13  0.0000E+00  0.0000E+00
      0.017      0.017    -0.013 120.000   0.00001   0.99996  0.99989E-17  0.3533E-04  0.0000E+00  0.3900E-08  0.5423E-12  0.0000E+00  0.2474E-09  0.0000E+00  0.0000E+00  0.0000E+00  0.0000E+00  0.0000E+00  0.0000E+00  0.0000E+00  0.0000E+00  0.0000E+00  0.0000E+00  0.1446E-11  0.0000E+00  0.0000E+00
ZONE T= "0.273791E-01 yr"  F=POINT
      0.017      0.017    -0.062 120.000  -0.07765   0.97181  0.10056E-16  0.0000E+00 -0.1755E-02  0.8166E-05  0.6868E-12  0.0000E+00 -0.6467E-04  0.0000E+00  0.0000E+00  0.0000E+00  0.0000E+00  0.0000E+00  0.0000E+00  0.0000E+00  0.0000E+00  0.0000E+00  0.0000E+00  0.7299E-13  0.0000E+00  0.0000E+00
      0.017      0.017    -0.013 120.000   0.00001   0.99996  0.99989E-17  0.3517E-04  0.0000E+00  0.6122E-08  0.6000E-12  0.0000E+00  0.2977E-09  0.0000E+00  0.0000E+00  0.0000E+00  0.0000E+00  0.0000E+00  0.0000E+00  0.0000E+00  0.0000E+00  0.0000E+00  0.0000E+00  0.1446E-11  0.0000E+00  0.0000E+00
ZONE T= "0.342239E-01 yr"  F=POINT
      0.017      0.017    -0.062 120.000  -0.07919   0.97181  0.10056E-16  0.0000E+00 -0.1755E-02  0.1210E-04  0.1061E-11  0.0000E+00 -0.6925E-04  0.0000E+00  0.0000E+00  0.0000E+00  0.0000E+00  0.0000E+00  0.0000E+00  0.0000E+00  0.0000E+00  0.0000E+00  0.0000E+00  0.7299E-13  0.0000E+00  0.0000E+00
      0.017      0.017    -0.013 120.000   0.00002   0.99997  0.99990E-17  0.3478E-04  0.0000E+00  0.1660E-07  0.7418E-12  0.0000E+00  0.4551E-09  0.0000E+00  0.0000E+00  0.0000E+00  0.0000E+00  0.0000E+00  0.0000E+00  0.0000E+00  0.0000E+00  0.0000E+00  0.0000E+00  0.1446E-11  0.0000E+00  0.0000E+00
ZONE T= "0.410687E-01 yr"  F=POINT
      0.017      0.017    -0.062 120.000  -0.08011   0.97181  0.10056E-16  0.0000E+00 -0.1755E-02  0.1611E-04  0.1451E-11  0.0000E+00 -0.7341E-04  0.0000E+00  0.0000E+00  0.0000E+00  0.0000E+00  0.0000E+00  0.0000E+00  0.0000E+00  0.0000E+00  0.0000E+00  0.0000E+00  0.7299E-13  0.0000E+00  0.0000E+00
      0.017      0.017    -0.013 120.000   0.00006   0.99997  0.99990E-17  0.3439E-04  0.0000E+00  0.4691E-07  0.8806E-12  0.0000E+00  0.6939E-09  0.0000E+00  0.0000E+00  0.0000E+00  0.0000E+00  0.0000E+00  0.0000E+00  0.0000E+00  0.0000E+00  0.0000E+00  0.0000E+00  0.1446E-11  0.0000E+00  0.0000E+00
