
          ---- Mineral saturation index (log(Q/K)) vs. grid blocks at specified times ----

 
VARIABLES =X,       Y,      Z,       anhydrite  ,halite     ,calcite    ,magnesite  ,quartz     ,dolomite-2 ,kaolinite  ,siderite-2 ,ankerite-2 ,pyrite-2   ,dawsonite  ,illite     ,oligoclase ,smectite-na,k-feldspar ,chlorite   ,hematite   ,smectite-ca,albite~low ,
ZONE T= "0.342239E-04 yr"  F=POINT
      0.017      0.017     -0.062    0.000010   -1.517443   -1.521037   -1.938600   -9.211450   -4.722353  -30.754208   -9.433660   -8.437440 -162.531336   -7.918647  -46.984689 -186.086313  -48.115823  -36.154259  -72.641724    1.586862  -48.112694  -35.796820
      0.017      0.017     -0.013    0.000001   -1.525181    1.726265    1.310064   -9.266540    1.773613  -31.023390  -13.402742   -6.993897 -176.479546   -8.115674  -43.675880 -167.322650  -45.769119  -33.046489  -57.513290    0.553255  -45.761270  -32.711695
ZONE T= "0.570398E-04 yr"  F=POINT
      0.017      0.017     -0.062   -0.000802   -1.496429   -1.493909   -1.911005   -9.211454   -4.667630  -30.690517   -9.404032   -8.381294 -162.557557   -7.858689  -46.894065 -185.751518  -48.043601  -36.105769  -72.436481    1.646085  -48.044687  -35.736178
      0.017      0.017     -0.013    0.000001   -1.525185    1.726238    1.310036   -9.266538    1.773558  -31.023334  -13.415658   -7.002973 -176.492368   -8.115648  -43.675847 -167.322647  -45.769089  -33.046488  -57.545748    0.527359  -45.761239  -32.711693
ZONE T= "0.684478E-04 yr"  F=POINT
      0.017      0.017     -0.062   -0.005520   -1.486652   -1.480796   -1.897352   -9.211456   -4.640864  -30.659381   -9.389550   -8.353948 -162.578724   -7.829722  -46.849760 -185.589441  -48.008359  -36.082116  -72.335722    1.675033  -48.011429  -35.706887
      0.017      0.017     -0.013    0.000001   -1.525187    1.726224    1.310022   -9.266536    1.773530  -31.023306  -13.417265   -7.004116 -176.493928   -8.115635  -43.675830 -167.322646  -45.769074  -33.046487  -57.549850    0.524113  -45.761224  -32.711692
ZONE T= "0.114080E-03 yr"  F=POINT
      0.017      0.017     -0.062   -0.023123   -1.450676   -1.431027   -1.845504   -9.211464   -4.539247  -30.542226   -9.335465   -8.250765 -162.659345   -7.721091  -46.682827 -184.980572  -47.875734  -35.992946  -71.956421    1.783150  -47.886096  -35.597032
      0.017      0.017     -0.013    0.000001   -1.525194    1.726169    1.309967   -9.266532    1.773419  -31.023194  -13.417762   -7.004536 -176.494238   -8.115582  -43.675763 -167.322640  -45.769014  -33.046485  -57.551430    0.522991  -45.761163  -32.711689
ZONE T= "0.171119E-03 yr"  F=POINT
      0.017      0.017     -0.062   -0.042484   -1.411981   -1.373970   -1.786033   -9.211475   -4.422718  -30.410071   -9.275112   -8.133619 -162.751783   -7.599431  -46.494097 -184.296355  -47.726130  -35.892059  -71.527730    1.903798  -47.744331  -35.473993
      0.017      0.017     -0.013    0.000001   -1.525203    1.726100    1.309897   -9.266526    1.773281  -31.023054  -13.417843   -7.004682 -176.494085   -8.115516  -43.675679 -167.322633  -45.768938  -33.046482  -57.552053    0.522669  -45.761086  -32.711686
ZONE T= "0.285199E-03 yr"  F=POINT
      0.017      0.017     -0.062   -0.073282   -1.352195   -1.272675   -1.680504   -9.211496   -4.215895  -30.181853   -9.171225   -7.927945 -162.911998   -7.392888  -46.167235 -183.126951  -47.468170  -35.717311  -70.780934    2.111483  -47.498476  -35.265192
      0.017      0.017     -0.013    0.000002   -1.525221    1.725962    1.309758   -9.266515    1.773004  -31.022773  -13.417988   -7.004963 -176.493760   -8.115384  -43.675512 -167.322619  -45.768788  -33.046475  -57.553259    0.522058  -45.760934  -32.711678
ZONE T= "0.342239E-03 yr"  F=POINT
      0.017      0.017     -0.062   -0.085740   -1.328584   -1.227399   -1.633349   -9.211507   -4.123463  -30.083125   -9.126247   -7.837037 -162.982454   -7.304385  -46.025217 -182.623238  -47.356462  -35.641268  -70.453945    2.201400  -47.391549  -35.175753
      0.017      0.017     -0.013    0.000005   -1.525230    1.725893    1.309689   -9.266509    1.772866  -31.022633  -13.418133   -7.005155 -176.493669   -8.115318  -43.675428 -167.322612  -45.768712  -33.046472  -57.554044    0.521608  -45.760857  -32.711674
ZONE T= "0.570398E-03 yr"  F=POINT
      0.017      0.017     -0.062   -0.122704   -1.260345   -1.072928   -1.472522   -9.211550   -3.808166  -29.765677   -8.980419   -7.532239 -163.219371   -7.020733  -45.564311 -180.999287  -46.995277  -35.393334  -69.376164    2.492959  -47.044175  -34.889247
      0.017      0.017     -0.013    0.000009   -1.525266    1.725618    1.309411   -9.266487    1.772313  -31.022072  -13.419182   -7.006247 -176.493776   -8.115054  -43.675093 -167.322584  -45.768411  -33.046460  -57.558350    0.518870  -45.760552  -32.711659
ZONE T= "0.684478E-03 yr"  F=POINT
      0.017      0.017     -0.062   -0.134452   -1.239239   -1.006639   -1.403697   -9.211570   -3.673051  -29.639939   -8.919583   -7.402717 -163.314559   -6.909969  -45.379659 -180.358547  -46.851507  -35.293539  -68.928340    2.614602  -46.904676  -34.777562
      0.017      0.017     -0.013    0.000009   -1.525284    1.725481    1.309272   -9.266476    1.772036  -31.021792  -13.420474   -7.007331 -176.494599   -8.114922  -43.674925 -167.322570  -45.768261  -33.046453  -57.562422    0.515966  -45.760400  -32.711652
ZONE T= "0.114080E-02 yr"  F=POINT
      0.017      0.017     -0.062   -0.161232   -1.192311   -0.792184   -1.181325   -9.211652   -3.236224  -29.287673   -8.746991   -7.000736 -163.624245   -6.593823  -44.847920 -178.514393  -46.439758  -35.001708  -67.593504    2.959717  -46.502407  -34.459360
      0.017      0.017     -0.013    0.000009   -1.525356    1.724930    1.308716   -9.266431    1.770931  -31.020671  -13.428022   -7.013332 -176.500277   -8.114394  -43.674256 -167.322517  -45.767660  -33.046429  -57.584662    0.499589  -45.759791  -32.711623
ZONE T= "0.171119E-02 yr"  F=POINT
      0.017      0.017     -0.062   -0.171455   -1.175425   -0.592385   -0.974459   -9.211747   -2.829559  -29.041843   -8.653031   -6.673105 -163.950125   -6.359269  -44.451177 -177.126272  -46.135580  -34.775974  -66.597469    3.147619  -46.201606  -34.224188
      0.017      0.017     -0.013    0.000009   -1.525446    1.724243    1.308023   -9.266375    1.769550  -31.019272  -13.465542   -7.040491 -176.535458   -8.113735  -43.673421 -167.322454  -45.766911  -33.046399  -57.682670    0.422950  -45.759031  -32.711586
ZONE T= "0.285199E-02 yr"  F=POINT
      0.017      0.017     -0.062   -0.173080   -1.174844   -0.308465   -0.679421   -9.211936   -2.250602  -28.820551   -8.725022   -6.351068 -164.592795   -6.106385  -44.037908 -175.610970  -45.822146  -34.523757  -65.818743    3.003656  -45.888205  -33.971726
      0.017      0.017     -0.013    0.000009   -1.525625    1.722871    1.306637   -9.266264    1.766792  -31.016480  -13.532785   -7.089349 -176.598029   -8.112419  -43.671757 -167.322339  -45.765416  -33.046341  -57.859188    0.285269  -45.757517  -32.711517
ZONE T= "0.342239E-02 yr"  F=POINT
      0.017      0.017     -0.062   -0.173572   -1.175090   -0.201859   -0.567721   -9.212029   -2.032297  -28.768398   -8.819913   -6.277376 -164.901674   -6.027223  -43.918176 -175.136449  -45.731759  -34.444660  -65.724598    2.813885  -45.797731  -33.892802
      0.017      0.017     -0.013    0.000006   -1.525715    1.722185    1.305945   -9.266209    1.765414  -31.015085  -13.568684   -7.115371 -176.631597   -8.111762  -43.670927 -167.322286  -45.764671  -33.046314  -57.953140    0.211874  -45.756762  -32.711483
ZONE T= "0.547582E-02 yr"  F=POINT
      0.017      0.017     -0.062   -0.175269   -1.176011    0.077829   -0.271514   -9.212360   -1.456401  -28.685797   -9.160636   -6.147331 -165.804403   -5.846790  -43.665748 -174.055669  -45.542031  -34.264489  -65.753390    2.132461  -45.607711  -33.713228
      0.017      0.017     -0.013    0.000010   -1.526038    1.719717    1.303454   -9.266012    1.760455  -31.010068  -13.637675   -7.166880 -176.692183   -8.109394  -43.667943 -167.322119  -45.761994  -33.046218  -58.140760    0.068141  -45.754048  -32.711365
ZONE T= "0.570398E-02 yr"  F=POINT
      0.017      0.017     -0.062   -0.175446   -1.176109    0.102896   -0.244725   -9.212394   -1.404545  -28.681285   -9.218211   -6.154530 -165.912393   -5.832071  -43.646399 -173.967589  -45.527539  -34.249802  -65.825899    2.017296  -45.593188  -33.698606
      0.017      0.017     -0.013    0.000009   -1.526074    1.719444    1.303178   -9.265991    1.759906  -31.009513  -13.652737   -7.177779 -176.706314   -8.109132  -43.667613 -167.322104  -45.761699  -33.046209  -58.180093    0.037380  -45.753749  -32.711353
ZONE T= "0.821373E-02 yr"  F=POINT
      0.017      0.017     -0.062   -0.177395   -1.177278    0.318195   -0.012430   -9.212794   -0.956951  -28.656593   -9.595440   -6.133603 -166.723141   -5.712820  -43.495941 -173.254571  -45.415186  -34.130915  -66.163579    1.262877  -45.480517  -33.580402
      0.017      0.017     -0.013    0.000007   -1.526469    1.716434    1.300139   -9.265754    1.753858  -31.003403  -13.661245   -7.187657 -176.704573   -8.106244  -43.663990 -167.321960  -45.758449  -33.046105  -58.219857    0.013343  -45.750455  -32.711222
ZONE T= "0.912637E-02 yr"  F=POINT
      0.017      0.017     -0.062   -0.178069   -1.177712    0.377277    0.052107   -9.212937   -0.833332  -28.653461   -9.708939   -6.134609 -166.955792   -5.681949  -43.458692 -173.070340  -45.387463  -34.100191  -66.282870    1.035886  -45.452689  -33.549913
      0.017      0.017     -0.013    0.000010   -1.526612    1.715340    1.299035   -9.265668    1.751659  -31.001183  -13.662751   -7.190136 -176.702348   -8.105195  -43.662676 -167.321921  -45.757272  -33.046070  -58.230347    0.007780  -45.749262  -32.711177
ZONE T= "0.123206E-01 yr"  F=POINT
      0.017      0.017     -0.062   -0.180267   -1.179288    0.524636    0.215380   -9.213430   -0.522700  -28.651318   -9.967971   -6.119591 -167.512617   -5.607863  -43.371913 -172.629759  -45.323095  -34.026698  -66.520171    0.517817  -45.387999  -33.477181
      0.017      0.017     -0.013    0.000008   -1.527115    1.711503    1.295161   -9.265372    1.743948  -30.993405  -13.660701   -7.193700 -176.687228   -8.101512  -43.658078 -167.321824  -45.753153  -33.045955  -58.248831    0.002925  -45.745087  -32.711028
ZONE T= "0.136896E-01 yr"  F=POINT
      0.017      0.017     -0.062   -0.181140   -1.179986    0.568760    0.265128   -9.213638   -0.428827  -28.652175  -10.048170   -6.116681 -167.682219   -5.586456  -43.347522 -172.503167  -45.305084  -34.005576  -66.597160    0.357410  -45.369868  -33.456360
      0.017      0.017     -0.013    0.000008   -1.527330    1.709856    1.293499   -9.265246    1.740639  -30.990071  -13.659237   -7.194822 -176.680154   -8.099932  -43.656110 -167.321805  -45.751392  -33.045911  -58.255311    0.002008  -45.743301  -32.710968
ZONE T= "0.164275E-01 yr"  F=POINT
      0.017      0.017     -0.062   -0.182732   -1.181412    0.627652    0.333032   -9.214042   -0.302031  -28.654623  -10.133072   -6.096850 -167.886905   -5.558579  -43.316251 -172.339765  -45.282131  -33.978294  -66.642036    0.187595  -45.346710  -33.429630
      0.017      0.017     -0.013    0.000009   -1.527761    1.706546    1.290158   -9.264994    1.733987  -30.983373  -13.655629   -7.196608 -176.665273   -8.096756  -43.652161 -167.321787  -45.747858  -33.045825  -58.266671    0.001501  -45.739719  -32.710853
ZONE T= "0.205343E-01 yr"  F=POINT
      0.017      0.017     -0.062   -0.184875   -1.183616    0.675233    0.390706   -9.214638   -0.196777  -28.658323  -10.188482   -6.070754 -168.039916   -5.536985  -43.292635 -172.216484  -45.265084  -33.957692  -66.639942    0.076731  -45.329407  -33.409775
      0.017      0.017     -0.013    0.000008   -1.528408    1.701536    1.285102   -9.264618    1.723923  -30.973250  -13.650004   -7.199197 -176.642608   -8.091952  -43.646202 -167.321813  -45.742530  -33.045706  -58.283449    0.001071  -45.734318  -32.710690
ZONE T= "0.205343E-01 yr"  F=POINT
      0.017      0.017     -0.062   -0.184909   -1.183689    0.675109    0.390578   -9.214680   -0.197030  -28.658485  -10.188515   -6.070940 -168.039591   -5.537100  -43.292982 -172.217898  -45.265393  -33.957971  -66.640684    0.076588  -45.329708  -33.410048
      0.017      0.017     -0.013    0.000003   -1.528408    1.701536    1.285103   -9.264618    1.723923  -30.973250  -13.650004   -7.199197 -176.642614   -8.091952  -43.646202 -167.321813  -45.742530  -33.045706  -58.283449    0.001071  -45.734318  -32.710690
ZONE T= "0.246412E-01 yr"  F=POINT
      0.017      0.017     -0.062   -0.186919   -1.185922    0.703569    0.427374   -9.215272   -0.131773  -28.661900  -10.215698   -6.050469 -168.125831   -5.524838  -43.279987 -172.150862  -45.256276  -33.946753  -66.619919    0.022162  -45.320360  -33.399536
      0.017      0.017     -0.013    0.000009   -1.529054    1.696468    1.279988   -9.264242    1.713741  -30.963035  -13.644273   -7.201787 -176.619664   -8.087103  -43.640198 -167.321900  -45.737166  -33.045599  -58.300275    0.000750  -45.728882  -32.710538
ZONE T= "0.273791E-01 yr"  F=POINT
      0.017      0.017     -0.062   -0.188176   -1.187419    0.711551    0.439874   -9.215657   -0.111291  -28.663774  -10.220474   -6.042080 -168.147836   -5.521909  -43.277145 -172.137673  -45.254531  -33.944524  -66.602337    0.012578  -45.318478  -33.397751
      0.017      0.017     -0.013    0.000009   -1.529485    1.693039    1.276528   -9.263990    1.706852  -30.956134  -13.640306   -7.203478 -176.604072   -8.083828  -43.636144 -167.321971  -45.733547  -33.045528  -58.311405    0.000731  -45.725214  -32.710437
ZONE T= "0.342239E-01 yr"  F=POINT
      0.017      0.017     -0.062   -0.191248   -1.191265    0.717808    0.456026   -9.216666   -0.088882  -28.668097  -10.224819   -6.034019 -168.167486   -5.521155  -43.277611 -172.145127  -45.255879  -33.945754  -66.576931    0.003724  -45.319496  -33.400046
      0.017      0.017     -0.013    0.000008   -1.530563    1.684239    1.267652   -9.263350    1.689174  -30.938476  -13.630179   -7.207852 -176.564226   -8.075460  -43.625767 -167.322143  -45.724291  -33.045343  -58.339878    0.000694  -45.715838  -32.710178
ZONE T= "0.410687E-01 yr"  F=POINT
      0.017      0.017     -0.062   -0.194207   -1.194989    0.717533    0.464849   -9.217606   -0.080334  -28.671864  -10.226128   -6.032563 -168.171063   -5.523382  -43.281086 -172.169520  -45.259397  -33.949747  -66.561519    0.001017  -45.322710  -33.405088
      0.017      0.017     -0.013    0.000008   -1.531642    1.674868    1.258206   -9.262670    1.670358  -30.919820  -13.619582   -7.212639 -176.522315   -8.066691  -43.614756 -167.322071  -45.714479  -33.045091  -58.369817    0.000694  -45.705905  -32.709852
