
          ---- Reactive Surface Areas (m^2/ kg H2O) vs. grid blocks at specified times ----

 
VARIABLES =X,       Y,      Z,     Sl,      A_fmr,     A_Factor,  halite     ,calcite    ,magnesite  ,quartz     ,dolomite-2 ,kaolinite  ,siderite-2 ,ankerite-2 ,pyrite-2   ,dawsonite  ,illite     ,oligoclase ,smectite-na,k-feldspar ,chlorite   ,hematite   ,smectite-ca,albite~low ,
ZONE T= "0.342239E-04 yr"  F=POINT
      0.017      0.017     -0.062 0.51603E-01 0.10000E+01 0.10685E-02  0.3921E-04  0.1469E-03  0.1449E-06  0.3454E-05  0.7126E-04  0.1266E-04  0.1742E-06  0.1805E-06  0.2571E-06  0.1266E-06  0.0000E+00  0.1333E-06  0.1394E-05  0.1307E-06  0.1452E-06  0.2680E-06  0.1391E-05  0.1327E-06
      0.017      0.017     -0.013 0.10000E+01 0.10000E+01 0.10467E-02  0.2287E-11  0.2524E-10  0.3087E-09  0.1112E-07  0.2399E-12  0.4118E-07  0.4045E-09  0.4250E-09  0.6751E-09  0.2491E-09  0.0000E+00  0.2709E-09  0.4387E-08  0.2622E-09  0.3096E-09  0.7106E-09  0.4376E-08  0.2688E-09
ZONE T= "0.570398E-04 yr"  F=POINT
      0.017      0.017     -0.062 0.51604E-01 0.10000E+01 0.10685E-02  0.3811E-04  0.1469E-03  0.1449E-06  0.3454E-05  0.7126E-04  0.1266E-04  0.1742E-06  0.1805E-06  0.2571E-06  0.1266E-06  0.0000E+00  0.1333E-06  0.1394E-05  0.1307E-06  0.1452E-06  0.2680E-06  0.1391E-05  0.1327E-06
      0.017      0.017     -0.013 0.10000E+01 0.10000E+01 0.10467E-02  0.2287E-11  0.2524E-10  0.3087E-09  0.1112E-07  0.2399E-12  0.4118E-07  0.4045E-09  0.4250E-09  0.6751E-09  0.2491E-09  0.0000E+00  0.2709E-09  0.4387E-08  0.2622E-09  0.3096E-09  0.7106E-09  0.4376E-08  0.2688E-09
ZONE T= "0.684478E-04 yr"  F=POINT
      0.017      0.017     -0.062 0.51605E-01 0.10000E+01 0.10685E-02  0.3629E-04  0.1469E-03  0.1449E-06  0.3454E-05  0.7126E-04  0.1266E-04  0.1742E-06  0.1805E-06  0.2571E-06  0.1266E-06  0.0000E+00  0.1333E-06  0.1394E-05  0.1307E-06  0.1452E-06  0.2680E-06  0.1391E-05  0.1327E-06
      0.017      0.017     -0.013 0.10000E+01 0.10000E+01 0.10467E-02  0.2287E-11  0.2524E-10  0.3087E-09  0.1112E-07  0.2399E-12  0.4118E-07  0.4045E-09  0.4250E-09  0.6751E-09  0.2491E-09  0.0000E+00  0.2709E-09  0.4387E-08  0.2622E-09  0.3096E-09  0.7106E-09  0.4376E-08  0.2688E-09
ZONE T= "0.114080E-03 yr"  F=POINT
      0.017      0.017     -0.062 0.51608E-01 0.10000E+01 0.10685E-02  0.3373E-04  0.1469E-03  0.1449E-06  0.3454E-05  0.7126E-04  0.1266E-04  0.1742E-06  0.1805E-06  0.2571E-06  0.1266E-06  0.0000E+00  0.1333E-06  0.1394E-05  0.1307E-06  0.1452E-06  0.2680E-06  0.1391E-05  0.1327E-06
      0.017      0.017     -0.013 0.10000E+01 0.10000E+01 0.10467E-02  0.2287E-11  0.2524E-10  0.3087E-09  0.1112E-07  0.2399E-12  0.4118E-07  0.4045E-09  0.4250E-09  0.6751E-09  0.2491E-09  0.0000E+00  0.2709E-09  0.4386E-08  0.2622E-09  0.3096E-09  0.7106E-09  0.4376E-08  0.2688E-09
ZONE T= "0.171119E-03 yr"  F=POINT
      0.017      0.017     -0.062 0.51611E-01 0.10000E+01 0.10685E-02  0.2908E-04  0.1469E-03  0.1449E-06  0.3454E-05  0.7126E-04  0.1266E-04  0.1742E-06  0.1805E-06  0.2571E-06  0.1266E-06  0.0000E+00  0.1333E-06  0.1394E-05  0.1307E-06  0.1452E-06  0.2680E-06  0.1391E-05  0.1327E-06
      0.017      0.017     -0.013 0.10000E+01 0.10000E+01 0.10467E-02  0.2287E-11  0.2524E-10  0.3087E-09  0.1112E-07  0.2399E-12  0.4118E-07  0.4045E-09  0.4250E-09  0.6751E-09  0.2491E-09  0.0000E+00  0.2709E-09  0.4386E-08  0.2622E-09  0.3096E-09  0.7106E-09  0.4376E-08  0.2688E-09
ZONE T= "0.285199E-03 yr"  F=POINT
      0.017      0.017     -0.062 0.51618E-01 0.10000E+01 0.10685E-02  0.2449E-04  0.1469E-03  0.1449E-06  0.3454E-05  0.7126E-04  0.1266E-04  0.1742E-06  0.1805E-06  0.2571E-06  0.1266E-06  0.0000E+00  0.1333E-06  0.1394E-05  0.1307E-06  0.1452E-06  0.2680E-06  0.1391E-05  0.1327E-06
      0.017      0.017     -0.013 0.10000E+01 0.10000E+01 0.10466E-02  0.2287E-11  0.2524E-10  0.3087E-09  0.1111E-07  0.2399E-12  0.4118E-07  0.4045E-09  0.4250E-09  0.6751E-09  0.2491E-09  0.0000E+00  0.2709E-09  0.4386E-08  0.2622E-09  0.3096E-09  0.7105E-09  0.4376E-08  0.2688E-09
ZONE T= "0.342239E-03 yr"  F=POINT
      0.017      0.017     -0.062 0.51622E-01 0.10000E+01 0.10685E-02  0.2218E-04  0.1469E-03  0.1449E-06  0.3454E-05  0.7126E-04  0.1266E-04  0.1742E-06  0.1805E-06  0.2571E-06  0.1266E-06  0.0000E+00  0.1333E-06  0.1394E-05  0.1307E-06  0.1452E-06  0.2680E-06  0.1391E-05  0.1327E-06
      0.017      0.017     -0.013 0.10000E+01 0.10000E+01 0.10466E-02  0.2287E-11  0.2524E-10  0.3087E-09  0.1111E-07  0.2399E-12  0.4118E-07  0.4045E-09  0.4250E-09  0.6751E-09  0.2491E-09  0.0000E+00  0.2709E-09  0.4386E-08  0.2622E-09  0.3096E-09  0.7105E-09  0.4376E-08  0.2688E-09
ZONE T= "0.570398E-03 yr"  F=POINT
      0.017      0.017     -0.062 0.51635E-01 0.10000E+01 0.10685E-02  0.1499E-04  0.1469E-03  0.1449E-06  0.3455E-05  0.7126E-04  0.1266E-04  0.1742E-06  0.1805E-06  0.2571E-06  0.1266E-06  0.0000E+00  0.1333E-06  0.1394E-05  0.1307E-06  0.1452E-06  0.2680E-06  0.1391E-05  0.1327E-06
      0.017      0.017     -0.013 0.10000E+01 0.10000E+01 0.10466E-02  0.2287E-11  0.2524E-10  0.3087E-09  0.1111E-07  0.2399E-12  0.4118E-07  0.4045E-09  0.4250E-09  0.6751E-09  0.2491E-09  0.0000E+00  0.2709E-09  0.4386E-08  0.2622E-09  0.3096E-09  0.7105E-09  0.4376E-08  0.2688E-09
ZONE T= "0.684478E-03 yr"  F=POINT
      0.017      0.017     -0.062 0.51642E-01 0.10000E+01 0.10685E-02  0.1150E-04  0.1468E-03  0.1449E-06  0.3455E-05  0.7126E-04  0.1266E-04  0.1742E-06  0.1805E-06  0.2571E-06  0.1266E-06  0.0000E+00  0.1333E-06  0.1394E-05  0.1307E-06  0.1452E-06  0.2680E-06  0.1391E-05  0.1327E-06
      0.017      0.017     -0.013 0.10000E+01 0.10000E+01 0.10466E-02  0.2287E-11  0.2524E-10  0.3087E-09  0.1111E-07  0.2399E-12  0.4118E-07  0.4045E-09  0.4250E-09  0.6751E-09  0.2491E-09  0.0000E+00  0.2709E-09  0.4386E-08  0.2622E-09  0.3096E-09  0.7105E-09  0.4376E-08  0.2688E-09
ZONE T= "0.114080E-02 yr"  F=POINT
      0.017      0.017     -0.062 0.51670E-01 0.10000E+01 0.10685E-02  0.4736E-05  0.1468E-03  0.1449E-06  0.3455E-05  0.7125E-04  0.1266E-04  0.1742E-06  0.1805E-06  0.2571E-06  0.1266E-06  0.0000E+00  0.1333E-06  0.1394E-05  0.1307E-06  0.1452E-06  0.2680E-06  0.1391E-05  0.1327E-06
      0.017      0.017     -0.013 0.10000E+01 0.10000E+01 0.10466E-02  0.2287E-11  0.2524E-10  0.3087E-09  0.1111E-07  0.2399E-12  0.4118E-07  0.4045E-09  0.4250E-09  0.6751E-09  0.2491E-09  0.0000E+00  0.2709E-09  0.4386E-08  0.2622E-09  0.3096E-09  0.7105E-09  0.4376E-08  0.2688E-09
ZONE T= "0.171119E-02 yr"  F=POINT
      0.017      0.017     -0.062 0.51705E-01 0.10000E+01 0.10685E-02  0.1983E-06  0.1468E-03  0.1449E-06  0.3455E-05  0.7124E-04  0.1266E-04  0.1742E-06  0.1805E-06  0.2571E-06  0.1266E-06  0.0000E+00  0.1333E-06  0.1394E-05  0.1307E-06  0.1452E-06  0.2680E-06  0.1391E-05  0.1327E-06
      0.017      0.017     -0.013 0.10000E+01 0.10000E+01 0.10466E-02  0.2287E-11  0.2524E-10  0.3087E-09  0.1111E-07  0.2399E-12  0.4118E-07  0.4045E-09  0.4250E-09  0.6751E-09  0.2491E-09  0.0000E+00  0.2709E-09  0.4386E-08  0.2622E-09  0.3096E-09  0.7105E-09  0.4376E-08  0.2688E-09
ZONE T= "0.285199E-02 yr"  F=POINT
      0.017      0.017     -0.062 0.51774E-01 0.10000E+01 0.10685E-02  0.6344E-08  0.1468E-03  0.1449E-06  0.3455E-05  0.7124E-04  0.1266E-04  0.1742E-06  0.1805E-06  0.2571E-06  0.1266E-06  0.0000E+00  0.1333E-06  0.1394E-05  0.1307E-06  0.1452E-06  0.2680E-06  0.1391E-05  0.1327E-06
      0.017      0.017     -0.013 0.10000E+01 0.10000E+01 0.10466E-02  0.2287E-11  0.2524E-10  0.3086E-09  0.1111E-07  0.2399E-12  0.4118E-07  0.4045E-09  0.4250E-09  0.6750E-09  0.2490E-09  0.0000E+00  0.2709E-09  0.4386E-08  0.2622E-09  0.3096E-09  0.7105E-09  0.4376E-08  0.2688E-09
ZONE T= "0.342239E-02 yr"  F=POINT
      0.017      0.017     -0.062 0.51808E-01 0.10000E+01 0.10685E-02  0.7004E-09  0.1468E-03  0.1449E-06  0.3455E-05  0.7123E-04  0.1266E-04  0.1742E-06  0.1805E-06  0.2571E-06  0.1266E-06  0.0000E+00  0.1333E-06  0.1394E-05  0.1307E-06  0.1452E-06  0.2680E-06  0.1391E-05  0.1327E-06
      0.017      0.017     -0.013 0.10000E+01 0.10000E+01 0.10465E-02  0.2287E-11  0.2524E-10  0.3086E-09  0.1111E-07  0.2399E-12  0.4118E-07  0.4045E-09  0.4250E-09  0.6750E-09  0.2490E-09  0.0000E+00  0.2709E-09  0.4386E-08  0.2622E-09  0.3096E-09  0.7105E-09  0.4376E-08  0.2687E-09
ZONE T= "0.547582E-02 yr"  F=POINT
      0.017      0.017     -0.062 0.51933E-01 0.10000E+01 0.10685E-02  0.7004E-09  0.1467E-03  0.1449E-06  0.3455E-05  0.7121E-04  0.1266E-04  0.1742E-06  0.1805E-06  0.2571E-06  0.1266E-06  0.0000E+00  0.1333E-06  0.1394E-05  0.1307E-06  0.1452E-06  0.2680E-06  0.1391E-05  0.1327E-06
      0.017      0.017     -0.013 0.10000E+01 0.10000E+01 0.10465E-02  0.2286E-11  0.2572E-10  0.3086E-09  0.1111E-07  0.2398E-12  0.4118E-07  0.4044E-09  0.4250E-09  0.6750E-09  0.2490E-09  0.0000E+00  0.2709E-09  0.4386E-08  0.2622E-09  0.3095E-09  0.7104E-09  0.4375E-08  0.2687E-09
ZONE T= "0.570398E-02 yr"  F=POINT
      0.017      0.017     -0.062 0.51947E-01 0.10000E+01 0.10685E-02  0.7004E-09  0.1467E-03  0.1449E-06  0.3455E-05  0.7121E-04  0.1266E-04  0.1742E-06  0.1805E-06  0.2571E-06  0.1266E-06  0.0000E+00  0.1333E-06  0.1394E-05  0.1307E-06  0.1452E-06  0.2680E-06  0.1391E-05  0.1327E-06
      0.017      0.017     -0.013 0.10000E+01 0.10000E+01 0.10464E-02  0.2286E-11  0.3092E-10  0.3086E-09  0.1111E-07  0.2398E-12  0.4118E-07  0.4044E-09  0.4250E-09  0.6750E-09  0.2490E-09  0.0000E+00  0.2709E-09  0.4386E-08  0.2622E-09  0.3095E-09  0.7104E-09  0.4375E-08  0.2687E-09
ZONE T= "0.821373E-02 yr"  F=POINT
      0.017      0.017     -0.062 0.52099E-01 0.10000E+01 0.10685E-02  0.7004E-09  0.1468E-03  0.1449E-06  0.3455E-05  0.7119E-04  0.1266E-04  0.1742E-06  0.1805E-06  0.2571E-06  0.1266E-06  0.0000E+00  0.1333E-06  0.1394E-05  0.1307E-06  0.1452E-06  0.2680E-06  0.1391E-05  0.1327E-06
      0.017      0.017     -0.013 0.10000E+01 0.10000E+01 0.10464E-02  0.2286E-11  0.4295E-10  0.3086E-09  0.1111E-07  0.2398E-12  0.4117E-07  0.4044E-09  0.4249E-09  0.6749E-09  0.2490E-09  0.0000E+00  0.2708E-09  0.4385E-08  0.2622E-09  0.3095E-09  0.7103E-09  0.4375E-08  0.2687E-09
ZONE T= "0.912637E-02 yr"  F=POINT
      0.017      0.017     -0.062 0.52155E-01 0.10000E+01 0.10685E-02  0.7004E-09  0.1468E-03  0.1449E-06  0.3455E-05  0.7118E-04  0.1266E-04  0.1742E-06  0.1805E-06  0.2571E-06  0.1266E-06  0.0000E+00  0.1333E-06  0.1394E-05  0.1307E-06  0.1452E-06  0.2680E-06  0.1391E-05  0.1327E-06
      0.017      0.017     -0.013 0.10000E+01 0.10000E+01 0.10463E-02  0.2286E-11  0.5372E-10  0.3086E-09  0.1111E-07  0.2398E-12  0.4117E-07  0.4044E-09  0.4249E-09  0.6749E-09  0.2490E-09  0.0000E+00  0.2708E-09  0.4385E-08  0.2621E-09  0.3095E-09  0.7103E-09  0.4375E-08  0.2687E-09
ZONE T= "0.123206E-01 yr"  F=POINT
      0.017      0.017     -0.062 0.52348E-01 0.10000E+01 0.10685E-02  0.7004E-09  0.1470E-03  0.1449E-06  0.3455E-05  0.7116E-04  0.1266E-04  0.1742E-06  0.1805E-06  0.2571E-06  0.1266E-06  0.0000E+00  0.1333E-06  0.1394E-05  0.1307E-06  0.1452E-06  0.2680E-06  0.1391E-05  0.1327E-06
      0.017      0.017     -0.013 0.10000E+01 0.10000E+01 0.10462E-02  0.2286E-11  0.9013E-10  0.3085E-09  0.1111E-07  0.2398E-12  0.4117E-07  0.4043E-09  0.4249E-09  0.6748E-09  0.2490E-09  0.0000E+00  0.2708E-09  0.4385E-08  0.2621E-09  0.3095E-09  0.7102E-09  0.4374E-08  0.2687E-09
ZONE T= "0.136896E-01 yr"  F=POINT
      0.017      0.017     -0.062 0.52432E-01 0.10000E+01 0.10685E-02  0.7004E-09  0.1471E-03  0.1449E-06  0.3455E-05  0.7116E-04  0.1266E-04  0.1742E-06  0.1805E-06  0.2571E-06  0.1266E-06  0.0000E+00  0.1333E-06  0.1394E-05  0.1307E-06  0.1452E-06  0.2680E-06  0.1391E-05  0.1327E-06
      0.017      0.017     -0.013 0.10000E+01 0.10000E+01 0.10462E-02  0.2286E-11  0.1169E-09  0.3085E-09  0.1111E-07  0.2470E-12  0.4117E-07  0.4043E-09  0.4248E-09  0.6748E-09  0.2490E-09  0.0000E+00  0.2708E-09  0.4384E-08  0.2621E-09  0.3095E-09  0.7102E-09  0.4374E-08  0.2687E-09
ZONE T= "0.164275E-01 yr"  F=POINT
      0.017      0.017     -0.062 0.52598E-01 0.10000E+01 0.10685E-02  0.7004E-09  0.1472E-03  0.1449E-06  0.3455E-05  0.7115E-04  0.1266E-04  0.1742E-06  0.1805E-06  0.2571E-06  0.1266E-06  0.0000E+00  0.1333E-06  0.1394E-05  0.1307E-06  0.1452E-06  0.2680E-06  0.1391E-05  0.1327E-06
      0.017      0.017     -0.013 0.10000E+01 0.10000E+01 0.10461E-02  0.2286E-11  0.1516E-09  0.3085E-09  0.1111E-07  0.2741E-12  0.4116E-07  0.4043E-09  0.4248E-09  0.6747E-09  0.2489E-09  0.0000E+00  0.2707E-09  0.4384E-08  0.2621E-09  0.3094E-09  0.7101E-09  0.4374E-08  0.2686E-09
ZONE T= "0.205343E-01 yr"  F=POINT
      0.017      0.017     -0.062 0.52847E-01 0.10000E+01 0.10685E-02  0.7004E-09  0.1475E-03  0.1449E-06  0.3455E-05  0.7114E-04  0.1266E-04  0.1742E-06  0.1805E-06  0.2571E-06  0.1266E-06  0.0000E+00  0.1333E-06  0.1394E-05  0.1307E-06  0.1452E-06  0.2680E-06  0.1391E-05  0.1327E-06
      0.017      0.017     -0.013 0.10000E+01 0.10000E+01 0.10459E-02  0.2285E-11  0.2407E-09  0.3084E-09  0.1111E-07  0.3334E-12  0.4116E-07  0.4042E-09  0.4247E-09  0.6746E-09  0.2489E-09  0.0000E+00  0.2707E-09  0.4383E-08  0.2620E-09  0.3094E-09  0.7100E-09  0.4373E-08  0.2686E-09
ZONE T= "0.205343E-01 yr"  F=POINT
      0.017      0.017     -0.062 0.52847E-01 0.10000E+01 0.10685E-02  0.7004E-09  0.1480E-03  0.1449E-06  0.3455E-05  0.7112E-04  0.1266E-04  0.1742E-06  0.1805E-06  0.2571E-06  0.1266E-06  0.0000E+00  0.1333E-06  0.1394E-05  0.1307E-06  0.1452E-06  0.2680E-06  0.1391E-05  0.1327E-06
      0.017      0.017     -0.013 0.10000E+01 0.10000E+01 0.10459E-02  0.2285E-11  0.4504E-09  0.3084E-09  0.1111E-07  0.4392E-12  0.4116E-07  0.4042E-09  0.4247E-09  0.6746E-09  0.2489E-09  0.0000E+00  0.2707E-09  0.4383E-08  0.2620E-09  0.3094E-09  0.7100E-09  0.4373E-08  0.2686E-09
ZONE T= "0.246412E-01 yr"  F=POINT
      0.017      0.017     -0.062 0.53097E-01 0.10000E+01 0.10685E-02  0.7004E-09  0.1484E-03  0.1449E-06  0.3455E-05  0.7112E-04  0.1266E-04  0.1742E-06  0.1805E-06  0.2571E-06  0.1266E-06  0.0000E+00  0.1333E-06  0.1394E-05  0.1307E-06  0.1452E-06  0.2680E-06  0.1391E-05  0.1327E-06
      0.017      0.017     -0.013 0.10000E+01 0.10000E+01 0.10458E-02  0.2285E-11  0.7545E-09  0.3084E-09  0.1111E-07  0.5346E-12  0.4115E-07  0.4042E-09  0.4247E-09  0.6745E-09  0.2489E-09  0.0000E+00  0.2707E-09  0.4383E-08  0.2620E-09  0.3093E-09  0.7099E-09  0.4372E-08  0.2685E-09
ZONE T= "0.273791E-01 yr"  F=POINT
      0.017      0.017     -0.062 0.53263E-01 0.10000E+01 0.10686E-02  0.7004E-09  0.1486E-03  0.1449E-06  0.3455E-05  0.7111E-04  0.1266E-04  0.1742E-06  0.1805E-06  0.2571E-06  0.1266E-06  0.0000E+00  0.1333E-06  0.1394E-05  0.1307E-06  0.1452E-06  0.2680E-06  0.1391E-05  0.1327E-06
      0.017      0.017     -0.013 0.10000E+01 0.10000E+01 0.10457E-02  0.2285E-11  0.9836E-09  0.3084E-09  0.1110E-07  0.5929E-12  0.4115E-07  0.4041E-09  0.4246E-09  0.6745E-09  0.2488E-09  0.0000E+00  0.2706E-09  0.4382E-08  0.2620E-09  0.3093E-09  0.7099E-09  0.4372E-08  0.2685E-09
ZONE T= "0.342239E-01 yr"  F=POINT
      0.017      0.017     -0.062 0.53678E-01 0.10000E+01 0.10686E-02  0.7004E-09  0.1498E-03  0.1449E-06  0.3455E-05  0.7110E-04  0.1266E-04  0.1742E-06  0.1805E-06  0.2571E-06  0.1266E-06  0.0000E+00  0.1333E-06  0.1394E-05  0.1307E-06  0.1452E-06  0.2680E-06  0.1391E-05  0.1327E-06
      0.017      0.017     -0.013 0.10000E+01 0.10000E+01 0.10454E-02  0.2284E-11  0.3273E-08  0.3083E-09  0.1110E-07  0.9936E-12  0.4114E-07  0.4040E-09  0.4245E-09  0.6743E-09  0.2488E-09  0.0000E+00  0.2706E-09  0.4381E-08  0.2619E-09  0.3092E-09  0.7097E-09  0.4371E-08  0.2685E-09
ZONE T= "0.410687E-01 yr"  F=POINT
      0.017      0.017     -0.062 0.54094E-01 0.10000E+01 0.10686E-02  0.7004E-09  0.1504E-03  0.1449E-06  0.3455E-05  0.7110E-04  0.1266E-04  0.1742E-06  0.1805E-06  0.2571E-06  0.1266E-06  0.0000E+00  0.1333E-06  0.1394E-05  0.1307E-06  0.1452E-06  0.2680E-06  0.1391E-05  0.1327E-06
      0.017      0.017     -0.013 0.10000E+01 0.10000E+01 0.10451E-02  0.2284E-11  0.6501E-08  0.3082E-09  0.1110E-07  0.1299E-11  0.4113E-07  0.4039E-09  0.4244E-09  0.6741E-09  0.2487E-09  0.0000E+00  0.2705E-09  0.4380E-08  0.2619E-09  0.3092E-09  0.7095E-09  0.4370E-08  0.2684E-09
