
          ---- Reaction Rate (mol/kg H2O/s) vs. grid blocks at specified times ----

 
VARIABLES =X,       Y,      Z,       halite     ,calcite    ,magnesite  ,quartz     ,dolomite-2 ,kaolinite  ,siderite-2 ,ankerite-2 ,pyrite-2   ,dawsonite  ,illite     ,oligoclase ,smectite-na,k-feldspar ,chlorite   ,hematite   ,smectite-ca,albite~low ,
ZONE T= "0.342239E-04 yr"  F=POINT
      0.017      0.017     -0.062  0.8357E-04  0.7326E-08  0.0000E+00  0.0000E+00  0.6582E-07  0.0000E+00  0.0000E+00  0.0000E+00  0.0000E+00  0.0000E+00  0.0000E+00  0.0000E+00  0.0000E+00  0.0000E+00  0.0000E+00 -0.1607E-16  0.0000E+00  0.0000E+00
      0.017      0.017     -0.013  0.0000E+00 -0.2020E-13 -0.2708E-16  0.0000E+00 -0.4471E-14  0.0000E+00  0.0000E+00  0.0000E+00  0.0000E+00  0.0000E+00  0.0000E+00  0.0000E+00  0.0000E+00  0.0000E+00  0.0000E+00 -0.2916E-20  0.0000E+00  0.0000E+00
ZONE T= "0.570398E-04 yr"  F=POINT
      0.017      0.017     -0.062  0.8108E-04  0.7118E-08  0.0000E+00  0.0000E+00  0.6500E-07  0.0000E+00  0.0000E+00  0.0000E+00  0.0000E+00  0.0000E+00  0.0000E+00  0.0000E+00  0.0000E+00  0.0000E+00  0.0000E+00 -0.1848E-16  0.0000E+00  0.0000E+00
      0.017      0.017     -0.013  0.0000E+00 -0.2020E-13 -0.2707E-16  0.0000E+00 -0.4471E-14  0.0000E+00  0.0000E+00  0.0000E+00  0.0000E+00  0.0000E+00  0.0000E+00  0.0000E+00  0.0000E+00  0.0000E+00  0.0000E+00 -0.2682E-20  0.0000E+00  0.0000E+00
ZONE T= "0.684478E-04 yr"  F=POINT
      0.017      0.017     -0.062  0.7715E-04  0.7020E-08  0.0000E+00  0.0000E+00  0.6461E-07  0.0000E+00  0.0000E+00  0.0000E+00  0.0000E+00  0.0000E+00  0.0000E+00  0.0000E+00  0.0000E+00  0.0000E+00  0.0000E+00 -0.1978E-16  0.0000E+00  0.0000E+00
      0.017      0.017     -0.013  0.0000E+00 -0.2020E-13 -0.2707E-16  0.0000E+00 -0.4471E-14  0.0000E+00  0.0000E+00  0.0000E+00  0.0000E+00  0.0000E+00  0.0000E+00  0.0000E+00  0.0000E+00  0.0000E+00  0.0000E+00 -0.2653E-20  0.0000E+00  0.0000E+00
ZONE T= "0.114080E-03 yr"  F=POINT
      0.017      0.017     -0.062  0.7152E-04  0.6663E-08  0.0000E+00  0.0000E+00  0.6317E-07  0.0000E+00  0.0000E+00  0.0000E+00  0.0000E+00  0.0000E+00  0.0000E+00  0.0000E+00  0.0000E+00  0.0000E+00  0.0000E+00 -0.2550E-16  0.0000E+00  0.0000E+00
      0.017      0.017     -0.013  0.0000E+00 -0.2020E-13 -0.2707E-16  0.0000E+00 -0.4469E-14  0.0000E+00  0.0000E+00  0.0000E+00  0.0000E+00  0.0000E+00  0.0000E+00  0.0000E+00  0.0000E+00  0.0000E+00  0.0000E+00 -0.2644E-20  0.0000E+00  0.0000E+00
ZONE T= "0.171119E-03 yr"  F=POINT
      0.017      0.017     -0.062  0.6144E-04  0.6284E-08  0.0000E+00  0.0000E+00  0.6158E-07  0.0000E+00  0.0000E+00  0.0000E+00  0.0000E+00  0.0000E+00  0.0000E+00  0.0000E+00  0.0000E+00  0.0000E+00  0.0000E+00 -0.3380E-16  0.0000E+00  0.0000E+00
      0.017      0.017     -0.013  0.0000E+00 -0.2019E-13 -0.2707E-16  0.0000E+00 -0.4468E-14  0.0000E+00  0.0000E+00  0.0000E+00  0.0000E+00  0.0000E+00  0.0000E+00  0.0000E+00  0.0000E+00  0.0000E+00  0.0000E+00 -0.2641E-20  0.0000E+00  0.0000E+00
ZONE T= "0.285199E-03 yr"  F=POINT
      0.017      0.017     -0.062  0.5143E-04  0.5680E-08  0.0000E+00  0.0000E+00  0.5897E-07  0.0000E+00  0.0000E+00  0.0000E+00  0.0000E+00  0.0000E+00  0.0000E+00  0.0000E+00  0.0000E+00  0.0000E+00  0.0000E+00 -0.5479E-16  0.0000E+00  0.0000E+00
      0.017      0.017     -0.013  0.0000E+00 -0.2019E-13 -0.2706E-16  0.0000E+00 -0.4465E-14  0.0000E+00  0.0000E+00  0.0000E+00  0.0000E+00  0.0000E+00  0.0000E+00  0.0000E+00  0.0000E+00  0.0000E+00  0.0000E+00 -0.2636E-20  0.0000E+00  0.0000E+00
ZONE T= "0.342239E-03 yr"  F=POINT
      0.017      0.017     -0.062  0.4646E-04  0.5436E-08  0.0000E+00  0.0000E+00  0.5788E-07  0.0000E+00  0.0000E+00  0.0000E+00  0.0000E+00  0.0000E+00  0.0000E+00  0.0000E+00  0.0000E+00  0.0000E+00  0.0000E+00 -0.6749E-16  0.0000E+00  0.0000E+00
      0.017      0.017     -0.013  0.0000E+00 -0.2018E-13 -0.2705E-16  0.0000E+00 -0.4464E-14  0.0000E+00  0.0000E+00  0.0000E+00  0.0000E+00  0.0000E+00  0.0000E+00  0.0000E+00  0.0000E+00  0.0000E+00  0.0000E+00 -0.2632E-20  0.0000E+00  0.0000E+00
ZONE T= "0.570398E-03 yr"  F=POINT
      0.017      0.017     -0.062  0.3114E-04  0.4691E-08  0.0000E+00  0.0000E+00  0.5445E-07  0.0000E+00  0.0000E+00  0.0000E+00  0.0000E+00  0.0000E+00  0.0000E+00  0.0000E+00  0.0000E+00  0.0000E+00  0.0000E+00 -0.1325E-15  0.0000E+00  0.0000E+00
      0.017      0.017     -0.013  0.0000E+00 -0.2017E-13 -0.2703E-16  0.0000E+00 -0.4458E-14  0.0000E+00  0.0000E+00  0.0000E+00  0.0000E+00  0.0000E+00  0.0000E+00  0.0000E+00  0.0000E+00  0.0000E+00  0.0000E+00 -0.2608E-20  0.0000E+00  0.0000E+00
ZONE T= "0.684478E-03 yr"  F=POINT
      0.017      0.017     -0.062  0.2381E-04  0.4408E-08  0.0000E+00  0.0000E+00  0.5313E-07  0.0000E+00  0.0000E+00  0.0000E+00  0.0000E+00  0.0000E+00  0.0000E+00  0.0000E+00  0.0000E+00  0.0000E+00  0.0000E+00 -0.1754E-15  0.0000E+00  0.0000E+00
      0.017      0.017     -0.013  0.0000E+00 -0.2016E-13 -0.2702E-16  0.0000E+00 -0.4455E-14  0.0000E+00  0.0000E+00  0.0000E+00  0.0000E+00  0.0000E+00  0.0000E+00  0.0000E+00  0.0000E+00  0.0000E+00  0.0000E+00 -0.2583E-20  0.0000E+00  0.0000E+00
ZONE T= "0.114080E-02 yr"  F=POINT
      0.017      0.017     -0.062  0.9741E-05  0.3583E-08  0.0000E+00  0.0000E+00  0.4933E-07  0.0000E+00  0.0000E+00  0.0000E+00  0.0000E+00  0.0000E+00  0.0000E+00  0.0000E+00  0.0000E+00  0.0000E+00  0.0000E+00 -0.3889E-15  0.0000E+00  0.0000E+00
      0.017      0.017     -0.013  0.0000E+00 -0.2014E-13 -0.2699E-16  0.0000E+00 -0.4443E-14  0.0000E+00  0.0000E+00  0.0000E+00  0.0000E+00  0.0000E+00  0.0000E+00  0.0000E+00  0.0000E+00  0.0000E+00  0.0000E+00 -0.2446E-20  0.0000E+00  0.0000E+00
ZONE T= "0.171119E-02 yr"  F=POINT
      0.017      0.017     -0.062  0.4066E-06  0.2862E-08  0.0000E+00  0.0000E+00  0.4631E-07  0.0000E+00  0.0000E+00  0.0000E+00  0.0000E+00  0.0000E+00  0.0000E+00  0.0000E+00  0.0000E+00  0.0000E+00  0.0000E+00 -0.5996E-15  0.0000E+00  0.0000E+00
      0.017      0.017     -0.013  0.0000E+00 -0.2010E-13 -0.2694E-16  0.0000E+00 -0.4429E-14  0.0000E+00  0.0000E+00  0.0000E+00  0.0000E+00  0.0000E+00  0.0000E+00  0.0000E+00  0.0000E+00  0.0000E+00  0.0000E+00 -0.1867E-20  0.0000E+00  0.0000E+00
ZONE T= "0.285199E-02 yr"  F=POINT
      0.017      0.017     -0.062  0.1301E-07  0.1728E-08  0.0000E+00  0.0000E+00  0.4257E-07  0.0000E+00  0.0000E+00  0.0000E+00  0.0000E+00  0.0000E+00  0.0000E+00  0.0000E+00  0.0000E+00  0.0000E+00  0.0000E+00 -0.4303E-15  0.0000E+00  0.0000E+00
      0.017      0.017     -0.013  0.0000E+00 -0.2004E-13 -0.2685E-16  0.0000E+00 -0.4400E-14  0.0000E+00  0.0000E+00  0.0000E+00  0.0000E+00  0.0000E+00  0.0000E+00  0.0000E+00  0.0000E+00  0.0000E+00  0.0000E+00 -0.1052E-20  0.0000E+00  0.0000E+00
ZONE T= "0.342239E-02 yr"  F=POINT
      0.017      0.017     -0.062  0.8643E-09  0.1214E-08  0.0000E+00  0.0000E+00  0.4123E-07  0.0000E+00  0.0000E+00  0.0000E+00  0.0000E+00  0.0000E+00  0.0000E+00  0.0000E+00  0.0000E+00  0.0000E+00  0.0000E+00 -0.2778E-15  0.0000E+00  0.0000E+00
      0.017      0.017     -0.013  0.0000E+00 -0.2000E-13 -0.2680E-16  0.0000E+00 -0.4386E-14  0.0000E+00  0.0000E+00  0.0000E+00  0.0000E+00  0.0000E+00  0.0000E+00  0.0000E+00  0.0000E+00  0.0000E+00  0.0000E+00 -0.7121E-21  0.0000E+00  0.0000E+00
ZONE T= "0.547582E-02 yr"  F=POINT
      0.017      0.017     -0.062  0.0000E+00 -0.4411E-09  0.0000E+00  0.0000E+00  0.3745E-07  0.0000E+00  0.0000E+00  0.0000E+00  0.0000E+00  0.0000E+00  0.0000E+00  0.0000E+00  0.0000E+00  0.0000E+00  0.0000E+00 -0.5752E-16  0.0000E+00  0.0000E+00
      0.017      0.017     -0.013  0.0000E+00 -0.2027E-13 -0.2664E-16  0.0000E+00 -0.4335E-14  0.0000E+00  0.0000E+00  0.0000E+00  0.0000E+00  0.0000E+00  0.0000E+00  0.0000E+00  0.0000E+00  0.0000E+00  0.0000E+00 -0.1924E-21  0.0000E+00  0.0000E+00
ZONE T= "0.570398E-02 yr"  F=POINT
      0.017      0.017     -0.062  0.0000E+00 -0.6009E-09  0.0000E+00  0.0000E+00  0.3705E-07  0.0000E+00  0.0000E+00  0.0000E+00  0.0000E+00  0.0000E+00  0.0000E+00  0.0000E+00  0.0000E+00  0.0000E+00  0.0000E+00 -0.4402E-16  0.0000E+00  0.0000E+00
      0.017      0.017     -0.013  0.0000E+00 -0.2435E-13 -0.2662E-16  0.0000E+00 -0.4329E-14  0.0000E+00  0.0000E+00  0.0000E+00  0.0000E+00  0.0000E+00  0.0000E+00  0.0000E+00  0.0000E+00  0.0000E+00  0.0000E+00 -0.1018E-21  0.0000E+00  0.0000E+00
ZONE T= "0.821373E-02 yr"  F=POINT
      0.017      0.017     -0.062  0.0000E+00 -0.2429E-08  0.0000E+00  0.0000E+00  0.3267E-07  0.0000E+00  0.0000E+00  0.0000E+00  0.0000E+00  0.0000E+00  0.0000E+00  0.0000E+00  0.0000E+00  0.0000E+00  0.0000E+00 -0.7397E-17  0.0000E+00  0.0000E+00
      0.017      0.017     -0.013  0.0000E+00 -0.3359E-13 -0.2643E-16  0.0000E+00 -0.4268E-14  0.0000E+00  0.0000E+00  0.0000E+00  0.0000E+00  0.0000E+00  0.0000E+00  0.0000E+00  0.0000E+00  0.0000E+00  0.0000E+00 -0.3533E-22  0.0000E+00  0.0000E+00
ZONE T= "0.912637E-02 yr"  F=POINT
      0.017      0.017     -0.062  0.0000E+00 -0.3112E-08 -0.8342E-16  0.0000E+00  0.3093E-07  0.0000E+00  0.0000E+00  0.0000E+00  0.0000E+00  0.0000E+00  0.0000E+00  0.0000E+00  0.0000E+00  0.0000E+00  0.0000E+00 -0.4212E-17  0.0000E+00  0.0000E+00
      0.017      0.017     -0.013  0.0000E+00 -0.4190E-13 -0.2635E-16  0.0000E+00 -0.4246E-14  0.0000E+00  0.0000E+00  0.0000E+00  0.0000E+00  0.0000E+00  0.0000E+00  0.0000E+00  0.0000E+00  0.0000E+00  0.0000E+00 -0.2047E-22  0.0000E+00  0.0000E+00
ZONE T= "0.123206E-01 yr"  F=POINT
      0.017      0.017     -0.062  0.0000E+00 -0.5283E-08 -0.4202E-15  0.0000E+00  0.2460E-07  0.0000E+00  0.0000E+00  0.0000E+00  0.0000E+00  0.0000E+00  0.0000E+00  0.0000E+00  0.0000E+00  0.0000E+00  0.0000E+00 -0.9802E-18  0.0000E+00  0.0000E+00
      0.017      0.017     -0.013  0.0000E+00 -0.6967E-13 -0.2610E-16  0.0000E+00 -0.4169E-14  0.0000E+00  0.0000E+00  0.0000E+00  0.0000E+00  0.0000E+00  0.0000E+00  0.0000E+00  0.0000E+00  0.0000E+00  0.0000E+00 -0.7651E-23  0.0000E+00  0.0000E+00
ZONE T= "0.136896E-01 yr"  F=POINT
      0.017      0.017     -0.062  0.0000E+00 -0.6094E-08 -0.5506E-15  0.0000E+00  0.2185E-07  0.0000E+00  0.0000E+00  0.0000E+00  0.0000E+00  0.0000E+00  0.0000E+00  0.0000E+00  0.0000E+00  0.0000E+00  0.0000E+00 -0.5456E-18  0.0000E+00  0.0000E+00
      0.017      0.017     -0.013  0.0000E+00 -0.9003E-13 -0.2600E-16  0.0000E+00 -0.4262E-14  0.0000E+00  0.0000E+00  0.0000E+00  0.0000E+00  0.0000E+00  0.0000E+00  0.0000E+00  0.0000E+00  0.0000E+00  0.0000E+00 -0.5247E-23  0.0000E+00  0.0000E+00
ZONE T= "0.164275E-01 yr"  F=POINT
      0.017      0.017     -0.062  0.0000E+00 -0.7312E-08 -0.7545E-15  0.0000E+00  0.1725E-07  0.0000E+00  0.0000E+00  0.0000E+00  0.0000E+00  0.0000E+00  0.0000E+00  0.0000E+00  0.0000E+00  0.0000E+00  0.0000E+00 -0.2308E-18  0.0000E+00  0.0000E+00
      0.017      0.017     -0.013  0.0000E+00 -0.1158E-12 -0.2579E-16  0.0000E+00 -0.4656E-14  0.0000E+00  0.0000E+00  0.0000E+00  0.0000E+00  0.0000E+00  0.0000E+00  0.0000E+00  0.0000E+00  0.0000E+00  0.0000E+00 -0.3919E-23  0.0000E+00  0.0000E+00
ZONE T= "0.205343E-01 yr"  F=POINT
      0.017      0.017     -0.062  0.0000E+00 -0.8437E-08 -0.9547E-15  0.0000E+00  0.1242E-07  0.0000E+00  0.0000E+00  0.0000E+00  0.0000E+00  0.0000E+00  0.0000E+00  0.0000E+00  0.0000E+00  0.0000E+00  0.0000E+00 -0.8255E-19  0.0000E+00  0.0000E+00
      0.017      0.017     -0.013  0.0000E+00 -0.1817E-12 -0.2547E-16  0.0000E+00 -0.5532E-14  0.0000E+00  0.0000E+00  0.0000E+00  0.0000E+00  0.0000E+00  0.0000E+00  0.0000E+00  0.0000E+00  0.0000E+00  0.0000E+00 -0.2794E-23  0.0000E+00  0.0000E+00
ZONE T= "0.205343E-01 yr"  F=POINT
      0.017      0.017     -0.062  0.0000E+00 -0.8464E-08 -0.9542E-15  0.0000E+00  0.1243E-07  0.0000E+00  0.0000E+00  0.0000E+00  0.0000E+00  0.0000E+00  0.0000E+00  0.0000E+00  0.0000E+00  0.0000E+00  0.0000E+00 -0.8238E-19  0.0000E+00  0.0000E+00
      0.017      0.017     -0.013  0.0000E+00 -0.3401E-12 -0.2547E-16  0.0000E+00 -0.7286E-14  0.0000E+00  0.0000E+00  0.0000E+00  0.0000E+00  0.0000E+00  0.0000E+00  0.0000E+00  0.0000E+00  0.0000E+00  0.0000E+00 -0.2794E-23  0.0000E+00  0.0000E+00
ZONE T= "0.246412E-01 yr"  F=POINT
      0.017      0.017     -0.062  0.0000E+00 -0.9213E-08 -0.1096E-14  0.0000E+00  0.8871E-08  0.0000E+00  0.0000E+00  0.0000E+00  0.0000E+00  0.0000E+00  0.0000E+00  0.0000E+00  0.0000E+00  0.0000E+00  0.0000E+00 -0.2236E-19  0.0000E+00  0.0000E+00
      0.017      0.017     -0.013  0.0000E+00 -0.5629E-12 -0.2515E-16  0.0000E+00 -0.8659E-14  0.0000E+00  0.0000E+00  0.0000E+00  0.0000E+00  0.0000E+00  0.0000E+00  0.0000E+00  0.0000E+00  0.0000E+00  0.0000E+00 -0.1956E-23  0.0000E+00  0.0000E+00
ZONE T= "0.273791E-01 yr"  F=POINT
      0.017      0.017     -0.062  0.0000E+00 -0.9439E-08 -0.1148E-14  0.0000E+00  0.7650E-08  0.0000E+00  0.0000E+00  0.0000E+00  0.0000E+00  0.0000E+00  0.0000E+00  0.0000E+00  0.0000E+00  0.0000E+00  0.0000E+00 -0.1255E-19  0.0000E+00  0.0000E+00
      0.017      0.017     -0.013  0.0000E+00 -0.7280E-12 -0.2494E-16  0.0000E+00 -0.9450E-14  0.0000E+00  0.0000E+00  0.0000E+00  0.0000E+00  0.0000E+00  0.0000E+00  0.0000E+00  0.0000E+00  0.0000E+00  0.0000E+00 -0.1906E-23  0.0000E+00  0.0000E+00
ZONE T= "0.342239E-01 yr"  F=POINT
      0.017      0.017     -0.062  0.0000E+00 -0.9687E-08 -0.1216E-14  0.0000E+00  0.6252E-08  0.0000E+00  0.0000E+00  0.0000E+00  0.0000E+00  0.0000E+00  0.0000E+00  0.0000E+00  0.0000E+00  0.0000E+00  0.0000E+00 -0.3678E-20  0.0000E+00  0.0000E+00
      0.017      0.017     -0.013  0.0000E+00 -0.2373E-11 -0.2440E-16  0.0000E+00 -0.1519E-13  0.0000E+00  0.0000E+00  0.0000E+00  0.0000E+00  0.0000E+00  0.0000E+00  0.0000E+00  0.0000E+00  0.0000E+00  0.0000E+00 -0.1808E-23  0.0000E+00  0.0000E+00
ZONE T= "0.410687E-01 yr"  F=POINT
      0.017      0.017     -0.062  0.0000E+00 -0.9720E-08 -0.1254E-14  0.0000E+00  0.5703E-08  0.0000E+00  0.0000E+00  0.0000E+00  0.0000E+00  0.0000E+00  0.0000E+00  0.0000E+00  0.0000E+00  0.0000E+00  0.0000E+00 -0.1002E-20  0.0000E+00  0.0000E+00
      0.017      0.017     -0.013  0.0000E+00 -0.4610E-11 -0.2384E-16  0.0000E+00 -0.1900E-13  0.0000E+00  0.0000E+00  0.0000E+00  0.0000E+00  0.0000E+00  0.0000E+00  0.0000E+00  0.0000E+00  0.0000E+00  0.0000E+00 -0.1808E-23  0.0000E+00  0.0000E+00
